# vtk DataFile Version 2.0
Unstructured Grid Example
ASCII
DATASET UNSTRUCTURED_GRID
POINTS 44588 float
7580.0 -791.0 5807.0
7580.0 -791.0 4661.0
7596.0 -791.0 4661.0
7596.0 -791.0 5807.0
7580.0 873.0 4661.0
7596.0 873.0 4661.0
7596.0 873.0 5807.0
7580.0 873.0 5807.0
7596.0 -753.0 5807.0
7580.0 -753.0 5807.0
7596.0 -753.0 4661.0
7580.0 -753.0 4661.0
7580.0 873.0 7107.0
7580.0 873.0 9107.0
7596.0 873.0 9107.0
7596.0 873.0 7107.0
7580.0 -791.0 9107.0
7596.0 -791.0 9107.0
7596.0 -791.0 7107.0
7580.0 -791.0 7107.0
7596.0 -753.0 7107.0
7580.0 -753.0 7107.0
7596.0 -753.0 9107.0
7580.0 -753.0 9107.0
7580.0 873.0 9707.0
7580.0 -753.0 9707.0
7580.0 -791.0 9707.0
7596.0 -753.0 9707.0
7596.0 873.0 9707.0
7596.0 -791.0 9707.0
7596.0 -791.0 18974.0
7596.0 -753.0 18974.0
7596.0 873.0 18974.0
7580.0 -791.0 18974.0
7580.0 -753.0 18974.0
7580.0 873.0 18974.0
7580.0 911.0 18974.0
7580.0 873.0 19697.0
7580.0 911.0 19697.0
7596.0 911.0 18974.0
7596.0 873.0 19697.0
7596.0 911.0 19697.0
7580.0 911.0 9707.0
7596.0 911.0 9707.0
7580.0 911.0 9107.0
7596.0 911.0 9107.0
7580.0 911.0 7107.0
7596.0 911.0 7107.0
7580.0 911.0 5807.0
7596.0 911.0 5807.0
7580.0 911.0 4661.0
7596.0 911.0 4661.0
7580.0 873.0 4248.0
7580.0 911.0 4248.0
7596.0 873.0 4248.0
7596.0 911.0 4248.0
7596.0 -687.75 4248.0
7596.0 -649.75 4248.0
7580.0 -687.75 4248.0
7580.0 -649.75 4248.0
7580.0 -816.0 5807.0
7580.0 -816.0 4661.0
7596.0 -816.0 5807.0
7596.0 -816.0 4661.0
7580.0 -816.0 7107.0
7596.0 -816.0 7107.0
7580.0 -816.0 9107.0
7596.0 -816.0 9107.0
7580.0 -816.0 9707.0
7596.0 -816.0 9707.0
7580.0 -816.0 18974.0
7596.0 -816.0 18974.0
7580.0 -610.25 19697.0
7596.0 -610.25 19697.0
7596.0 -572.25 19697.0
7580.0 -572.25 19697.0
7580.0 -610.25 20636.5
7580.0 -610.25 20433.5
7580.0 -711.25 20433.5
7580.0 -711.25 20636.5
7596.0 -610.25 20636.5
7596.0 -610.25 20433.5
7596.0 -711.25 20433.5
7596.0 -711.25 20636.5
7580.0 -572.25 20738.0
7580.0 -610.25 20738.0
7596.0 -572.25 20738.0
7596.0 -610.25 20738.0
7580.0 911.0 20738.0
7580.0 873.0 20738.0
7596.0 911.0 20738.0
7596.0 873.0 20738.0
7580.0 936.0 19697.0
7580.0 936.0 20738.0
7596.0 936.0 19697.0
7596.0 936.0 20738.0
7580.0 936.0 18974.0
7596.0 936.0 18974.0
7580.0 936.0 9707.0
7596.0 936.0 9707.0
7580.0 936.0 9107.0
7596.0 936.0 9107.0
7580.0 936.0 7107.0
7596.0 936.0 7107.0
7580.0 936.0 5807.0
7596.0 936.0 5807.0
7580.0 936.0 4661.0
7596.0 936.0 4661.0
7580.0 936.0 4248.0
7596.0 936.0 4248.0
7580.0 911.0 3207.0
7580.0 936.0 3207.0
7596.0 911.0 3207.0
7596.0 936.0 3207.0
7580.0 873.0 3207.0
7596.0 873.0 3207.0
7580.0 -649.75 3207.0
7580.0 -687.75 3511.5
7580.0 -687.75 3308.5
7580.0 -687.75 3207.0
7596.0 -649.75 3207.0
7596.0 -687.75 3511.5
7596.0 -687.75 3308.5
7596.0 -687.75 3207.0
7580.0 -788.75 3308.5
7580.0 -788.75 3511.5
7596.0 -788.75 3308.5
7596.0 -788.75 3511.5
7359.5 -791.0 4661.0
7359.5 -791.0 5807.0
7359.5 -753.0 5807.0
7359.5 -753.0 4661.0
7359.5 -791.0 9107.0
7359.5 -753.0 9107.0
7359.5 -753.0 7107.0
7359.5 -791.0 7107.0
7359.5 -753.0 9707.0
7359.5 -791.0 9707.0
7359.5 -791.0 18974.0
7359.5 -753.0 18974.0
7359.5 911.0 18974.0
7359.5 873.0 18974.0
7359.5 873.0 19697.0
7359.5 911.0 19697.0
7359.5 911.0 9707.0
7359.5 873.0 9707.0
7359.5 911.0 9107.0
7359.5 873.0 9107.0
7359.5 911.0 7107.0
7359.5 873.0 7107.0
7359.5 911.0 5807.0
7359.5 873.0 5807.0
7359.5 911.0 4661.0
7359.5 873.0 4661.0
7359.5 873.0 4248.0
7359.5 911.0 4248.0
7359.5 -649.75 4248.0
7359.5 -687.75 4248.0
7359.5 -816.0 5807.0
7359.5 -816.0 4661.0
7359.5 -816.0 7107.0
7359.5 -816.0 9107.0
7359.5 -816.0 9707.0
7359.5 -816.0 18974.0
7359.5 -610.25 19697.0
7359.5 -572.25 19697.0
7297.0 -711.25 20636.5
7297.0 -711.25 20433.5
7359.5 -610.25 20636.5
7359.5 -610.25 20433.5
7321.5 -610.25 20433.5
7321.5 -610.25 20636.5
7297.0 -610.25 20433.5
7297.0 -610.25 20636.5
7359.5 -572.25 20738.0
7359.5 -610.25 20738.0
7359.5 911.0 20738.0
7359.5 873.0 20738.0
7359.5 936.0 19697.0
7359.5 936.0 20738.0
7359.5 936.0 18974.0
7359.5 936.0 9707.0
7359.5 936.0 9107.0
7359.5 936.0 7107.0
7359.5 936.0 5807.0
7359.5 936.0 4661.0
7359.5 936.0 4248.0
7359.5 911.0 3207.0
7359.5 936.0 3207.0
7359.5 873.0 3207.0
7359.5 -649.75 3207.0
7359.5 -687.75 3511.5
7359.5 -687.75 3308.5
7359.5 -687.75 3207.0
7297.0 -788.75 3511.5
7297.0 -788.75 3308.5
7321.5 -687.75 3511.5
7321.5 -687.75 3308.5
7297.0 -687.75 3308.5
7297.0 -687.75 3511.5
7816.5 -791.0 7107.0
7816.5 -753.0 7107.0
7816.5 -753.0 5807.0
7816.5 -791.0 5807.0
7816.5 -791.0 9107.0
7816.5 -753.0 9107.0
7816.5 -753.0 9707.0
7816.5 -791.0 9707.0
7816.5 911.0 18974.0
7816.5 873.0 18974.0
7816.5 873.0 19697.0
7816.5 911.0 19697.0
7816.5 911.0 9707.0
7816.5 873.0 9707.0
7816.5 911.0 9107.0
7816.5 873.0 9107.0
7816.5 911.0 7107.0
7816.5 873.0 7107.0
7816.5 911.0 5807.0
7816.5 873.0 5807.0
7816.5 873.0 4661.0
7816.5 911.0 4661.0
7816.5 873.0 4248.0
7816.5 911.0 4248.0
7816.5 -791.0 4661.0
7816.5 -753.0 4661.0
7816.5 -816.0 4661.0
7816.5 -816.0 5807.0
7816.5 -816.0 7107.0
7816.5 -816.0 9107.0
7816.5 -816.0 9707.0
7816.5 -816.0 18974.0
7816.5 -791.0 18974.0
7816.5 -610.25 19697.0
7816.5 -572.25 19697.0
7816.5 -753.0 18974.0
7879.0 -610.25 20636.5
7879.0 -610.25 20433.5
7854.5 -610.25 20433.5
7854.5 -610.25 20636.5
7816.5 -610.25 20636.5
7816.5 -610.25 20433.5
7879.0 -711.25 20433.5
7879.0 -711.25 20636.5
7816.5 -572.25 20738.0
7816.5 -610.25 20738.0
7816.5 911.0 20738.0
7816.5 873.0 20738.0
7816.5 936.0 20738.0
7816.5 936.0 19697.0
7816.5 936.0 18974.0
7816.5 936.0 9707.0
7816.5 936.0 9107.0
7816.5 936.0 7107.0
7816.5 936.0 5807.0
7816.5 936.0 4661.0
7816.5 936.0 4248.0
7816.5 936.0 3207.0
7816.5 911.0 3207.0
7816.5 873.0 3207.0
7816.5 -687.75 4248.0
7816.5 -649.75 4248.0
7816.5 -649.75 3207.0
7816.5 -687.75 3511.5
7816.5 -687.75 3308.5
7816.5 -687.75 3207.0
7854.5 -687.75 3511.5
7854.5 -687.75 3308.5
7879.0 -687.75 3511.5
7879.0 -687.75 3308.5
7879.0 -788.75 3308.5
7879.0 -788.75 3511.5
7854.5 911.0 9107.0
7854.5 873.0 9107.0
7854.5 911.0 9707.0
7854.5 873.0 9707.0
7321.5 911.0 9707.0
7321.5 873.0 9707.0
7321.5 911.0 9107.0
7321.5 873.0 9107.0
7854.5 -791.0 9707.0
7854.5 -753.0 9707.0
7854.5 -753.0 9107.0
7854.5 -791.0 9107.0
7854.5 873.0 18974.0
7854.5 911.0 18974.0
7321.5 911.0 18974.0
7321.5 873.0 18974.0
7854.5 -791.0 18974.0
7854.5 -753.0 18974.0
7321.5 -753.0 9707.0
7321.5 -753.0 18974.0
7321.5 -791.0 9707.0
7321.5 -791.0 18974.0
7321.5 -753.0 9107.0
7321.5 -791.0 9107.0
7321.5 -753.0 7107.0
7321.5 -791.0 7107.0
7321.5 873.0 7107.0
7321.5 911.0 7107.0
7854.5 -753.0 7107.0
7854.5 -791.0 7107.0
7854.5 873.0 7107.0
7854.5 911.0 7107.0
7854.5 873.0 5807.0
7854.5 911.0 5807.0
7321.5 873.0 5807.0
7321.5 911.0 5807.0
7854.5 -753.0 5807.0
7854.5 -791.0 5807.0
7321.5 -791.0 5807.0
7321.5 -753.0 5807.0
7321.5 -753.0 4661.0
7321.5 -791.0 4661.0
7321.5 873.0 4661.0
7321.5 911.0 4661.0
7854.5 873.0 4661.0
7854.5 911.0 4661.0
7854.5 -753.0 4661.0
7854.5 -791.0 4661.0
7321.5 -572.25 19697.0
7321.5 -572.25 20738.0
7321.5 -610.25 20738.0
7321.5 -610.25 19697.0
7854.5 -687.75 4248.0
7854.5 -687.75 3207.0
7854.5 -649.75 3207.0
7854.5 -649.75 4248.0
7854.5 873.0 19697.0
7854.5 911.0 19697.0
7321.5 911.0 19697.0
7321.5 873.0 19697.0
7854.5 873.0 4248.0
7854.5 911.0 4248.0
7321.5 911.0 4248.0
7321.5 873.0 4248.0
7854.5 -572.25 19697.0
7854.5 -610.25 19697.0
7321.5 -649.75 4248.0
7321.5 -687.75 4248.0
7854.5 911.0 3207.0
7854.5 873.0 3207.0
7321.5 -687.75 3207.0
7321.5 -649.75 3207.0
7321.5 911.0 3207.0
7321.5 873.0 3207.0
7321.5 911.0 20738.0
7321.5 873.0 20738.0
7854.5 873.0 20738.0
7854.5 911.0 20738.0
7854.5 -572.25 20738.0
7854.5 -610.25 20738.0
7580.0 -791.0 5757.17382812
7580.0 -791.0 5707.34765625
7580.0 -791.0 5657.52197266
7580.0 -791.0 5607.69580078
7580.0 -791.0 5557.86962891
7580.0 -791.0 5508.04345703
7580.0 -791.0 5458.21728516
7580.0 -791.0 5408.39160156
7580.0 -791.0 5358.56542969
7580.0 -791.0 5308.73876953
7580.0 -791.0 5258.91308594
7580.0 -791.0 5209.08691406
7580.0 -791.0 5159.26074219
7580.0 -791.0 5109.43457031
7580.0 -791.0 5059.60839844
7580.0 -791.0 5009.78271484
7580.0 -791.0 4959.95654297
7580.0 -791.0 4910.13037109
7580.0 -791.0 4860.30419922
7580.0 -791.0 4810.47802734
7580.0 -791.0 4760.65234375
7580.0 -791.0 4710.82617188
7596.0 -791.0 4710.82617188
7596.0 -791.0 4760.65234375
7596.0 -791.0 4810.47802734
7596.0 -791.0 4860.30419922
7596.0 -791.0 4910.13037109
7596.0 -791.0 4959.95654297
7596.0 -791.0 5009.78271484
7596.0 -791.0 5059.60839844
7596.0 -791.0 5109.43457031
7596.0 -791.0 5159.26074219
7596.0 -791.0 5209.08691406
7596.0 -791.0 5258.91308594
7596.0 -791.0 5308.73876953
7596.0 -791.0 5358.56542969
7596.0 -791.0 5408.39160156
7596.0 -791.0 5458.21728516
7596.0 -791.0 5508.04345703
7596.0 -791.0 5557.86962891
7596.0 -791.0 5607.69580078
7596.0 -791.0 5657.52197266
7596.0 -791.0 5707.34765625
7596.0 -791.0 5757.17382812
7580.0 873.0 4710.82617188
7580.0 873.0 4760.65234375
7580.0 873.0 4810.47802734
7580.0 873.0 4860.30419922
7580.0 873.0 4910.13037109
7580.0 873.0 4959.95654297
7580.0 873.0 5009.78271484
7580.0 873.0 5059.60839844
7580.0 873.0 5109.43457031
7580.0 873.0 5159.26074219
7580.0 873.0 5209.08691406
7580.0 873.0 5258.91308594
7580.0 873.0 5308.73876953
7580.0 873.0 5358.56542969
7580.0 873.0 5408.39160156
7580.0 873.0 5458.21728516
7580.0 873.0 5508.04345703
7580.0 873.0 5557.86962891
7580.0 873.0 5607.69580078
7580.0 873.0 5657.52197266
7580.0 873.0 5707.34765625
7580.0 873.0 5757.17382812
7596.0 873.0 5757.17382812
7596.0 873.0 5707.34765625
7596.0 873.0 5657.52197266
7596.0 873.0 5607.69580078
7596.0 873.0 5557.86962891
7596.0 873.0 5508.04345703
7596.0 873.0 5458.21728516
[...]
POINT_DATA 44588
SCALARS U1 float 1
LOOKUP_TABLE default
-0.0041168234311
-0.00255502201617
-0.00255513144657
-0.00411698641255
-0.000466904515633
-0.000466904311907
-0.00294427969493
-0.0029442764353
-0.0043888813816
-0.00438949046656
-0.00203620526008
-0.00203619850799
-0.00306907156482
0.00271484674886
0.00271484092809
-0.00306907785125
0.00187499797903
0.00187499029562
-0.00355987856165
-0.0035599747207
-0.00449873087928
-0.00449855392799
0.00103656738065
0.00103656505235
0.00446116738021
0.00271479017101
0.00352717330679
0.0027147908695
0.00446116086096
0.00352716539055
-0.0034017607104
-0.00322472536936
0.00028306277818
-0.00340252043679
-0.00322409998626
0.000283060828224
-0.0005378559581
0.00369259063154
0.00271400692873
-0.000537863408681
0.00369258713908
0.00271400320344
0.00390879483894
0.00390878831968
0.00228829612024
0.00228828936815
-0.00330797280185
-0.00330798141658
-0.00401331158355
-0.00401331530884
-0.00246599013917
-0.00246598292142
0.000578774663154
-0.00163766101468
0.000578763952944
-0.00163765193429
-0.000522281043231
0.000264027970843
-0.000522369286045
0.000264017202426
-0.00393887702376
-0.00288597051986
-0.003939404618
-0.00288609066047
-0.00294394325465
-0.00294343405403
0.00242700218223
0.00242698960938
0.00406295759603
0.00406311592087
-0.00351354200393
-0.00351225887425
-0.000768461730331
-0.00076858693501
-0.000305745663354
-0.000305778521579
5.14381054018e-06
-1.50913265315e-05
0.0
0.0
5.14046314493e-06
-1.51404765347e-05
0.0
0.0
2.00498216145e-05
9.22697199712e-06
2.00500198844e-05
9.23208608583e-06
0.00782102160156
0.00887832045555
0.0078210234642
0.00887832138687
0.00207042088732
0.00712536182255
0.00207041646354
0.00712536321953
-0.00107833230868
-0.00107834569644
0.00354622816667
0.00354622211307
0.00200793053955
0.00200792355463
-0.00346646201797
-0.00346647109836
-0.0047170505859
-0.00471705431119
-0.00378105742857
-0.00378104578704
-0.00309527432546
-0.00309524592012
0.000622303574346
-0.000962469202932
0.000622325693257
-0.000962462509051
0.0030309704598
0.00303099793382
1.39166977533e-05
-7.1129711614e-06
-8.19711772237e-07
-9.3352755357e-06
1.39097446663e-05
-7.12549945092e-06
-8.29370151223e-07
-9.34600848268e-06
0.0
0.0
0.0
0.0
-0.00254166242667
-0.004095248878
-0.00437896419317
-0.00203322828747
0.00186588719953
0.00102186412551
-0.00447133276612
-0.00353916245513
0.00268721580505
0.00350801623426
-0.00338473217562
-0.00320590124466
-0.000514464220032
0.000308703194605
0.00370145519264
0.00272405217402
0.00388368801214
0.00443101488054
0.00227536889724
0.00270045222715
-0.00327995000407
-0.00302948616445
-0.00398670043796
-0.00291216443293
-0.0024545036722
-0.000458796421299
0.00058261922095
-0.00163248542231
0.000250422686804
-0.000506166485138
-0.00390983512625
-0.0028606725391
-0.00292507908307
0.00242122937925
0.00404813559726
-0.00349650275894
-0.000766476034187
-0.000313759432174
0.0
0.0
3.37489427693e-06
-1.45340491144e-05
-6.58923545416e-06
3.28708483721e-06
-8.73596673046e-06
-2.45839601121e-06
9.51972651819e-06
1.63188342412e-05
0.00782099738717
0.00887845549732
0.00208080932498
0.00712534179911
-0.00105632247869
0.00352376676165
0.00199580518529
-0.00344486325048
-0.00469392258674
-0.00376785104163
-0.00308880838566
0.00062117818743
-0.000962808029726
0.00302883726545
1.52784355123e-06
-1.85745500403e-06
1.45690728459e-06
7.47873536966e-06
0.0
0.0
1.13090327432e-05
4.82359382659e-06
-9.81669381872e-06
-1.05842073026e-05
-0.00353023526259
-0.00446314876899
-0.00435596844181
-0.0040897722356
0.00186587660573
0.00102198880631
0.00269548059441
0.00351290521212
-0.000514713930897
0.000308512971969
0.00370137137361
0.0027239525225
0.00388351059519
0.00443083187565
0.00227517355233
0.00270025548525
-0.00328018493019
-0.00302970781922
-0.00398681918159
-0.0029122789856
-0.000458838650957
-0.00245442683809
0.000580628111493
-0.0016314642271
-0.00254026520997
-0.00203784159385
-0.00285854749382
-0.00391486566514
-0.00291664805263
0.00242113345303
0.00405037496239
-0.00348329823464
-0.0033822664991
-0.00076783739496
-0.000315278099151
-0.00321376812644
-2.39585006057e-06
-8.72288273968e-06
-6.73355270919e-06
3.26641702486e-06
3.37075130119e-06
-1.45987469296e-05
0.0
0.0
9.48772139964e-06
1.63570857694e-05
0.00782101042569
0.00887846481055
0.00712535716593
0.00208070012741
-0.00105661235284
0.00352359353565
0.0019956107717
-0.00344510772265
-0.00469404365867
-0.0037677004002
-0.00308711919934
-0.00096272333758
0.000621721730568
0.00303026544861
-0.000505961128511
0.000252239813562
1.52577990775e-06
-1.92156380763e-06
1.41439591061e-06
7.36703623261e-06
1.12266725409e-05
4.75664273836e-06
-1.0555217159e-05
-9.82724486676e-06
0.0
0.0
0.00227611768059
0.00269583286718
0.00389165314846
0.00441587902606
0.00389183545485
0.00441607926041
0.00227632303722
0.00269604357891
0.00353265181184
0.0026698440779
0.00100508111063
0.00187993561849
0.000319604412653
-0.000519411347341
-0.000519097899087
0.000319760525599
-0.00339382677339
-0.00319690862671
0.00268277758732
-0.0032054844778
0.00350563670509
-0.00337894633412
0.00100480450783
0.00188009557314
-0.00444686319679
-0.00355562125333
-0.00299667590298
-0.00330477324314
-0.00444588856772
-0.00353942415677
-0.00299690361135
-0.00330502889119
-0.00289134960622
-0.00400017481297
-0.00289123575203
-0.00400004023686
-0.00434405962005
-0.00409449962899
-0.00408956827596
-0.00437779445201
-0.00201925984584
-0.00255588861182
-0.000461092975456
-0.00244880490936
-0.000462632713607
-0.00244723027572
-0.00200587348081
-0.00257294741459
-0.00031109052361
9.67518462858e-06
1.56624610099e-05
-0.000770909478888
-0.000511608843226
8.57987197378e-06
6.9859947871e-07
0.000257350096945
0.00370319536887
0.00272493623197
0.0027250982821
0.0037032305263
0.000576902588364
-0.00162576220464
-0.00163959013298
0.000591830583289
-0.000312524469336
-0.000771810242441
0.000253774924204
-0.00050942710368
0.000610014249105
0.00304204481654
8.6892841864e-06
7.02019576693e-07
0.000621233135462
0.00302887847647
0.00781568698585
0.00888383109123
0.00888384412974
0.00781569629908
9.65439539868e-06
1.56779151439e-05
-0.0040806257166
-0.00404005264863
-0.00399610446766
-0.00394865451381
-0.00389787205495
-0.00384389446117
-0.00378681137227
-0.00372676923871
-0.00366386119276
-0.00359822297469
-0.00352996191941
-0.00345920748077
-0.00338607700542
-0.00331069622189
-0.00323318922892
-0.00315367011353
-0.00307228881866
-0.00298910797574
-0.00290443282574
-0.00281801470555
-0.00273117935285
-0.00264154723845
-0.00264155934565
-0.0027311630547
-0.00281797489151
-0.00290438858792
-0.00298906583339
-0.00307225389406
-0.00315364310518
-0.0032331708353
-0.00331068690866
-0.00338607677259
-0.00345921819098
-0.00352998473682
-0.00359826115891
-0.00366391753778
-0.00372684723698
-0.00378691428341
-0.00384402438067
-0.00389802828431
-0.00394884031266
-0.0039963000454
-0.00404028780758
-0.00408077612519
-0.000592093740124
-0.000717426242772
-0.000842670036945
-0.0009670786676
-0.00109071074985
-0.00121325033251
-0.00133457512129
-0.00145442562643
-0.00157266377937
-0.00168904161546
-0.00180340872612
-0.00191552331671
-0.00202523567714
-0.00213229074143
-0.00223656347953
-0.00233776075765
-0.00243580224924
-0.00253034499474
-0.00262135756202
-0.00270841084421
-0.00279166712426
-0.00287021743134
-0.00287021999247
-0.00279166991822
-0.00270841340534
-0.00262135989033
-0.00253034732305
-0.00243580457754
-0.00233776308596
-0.002236565575
-0.0021322928369
-0.00202523777261
-0.00191552529577
-0.00180341070518
-0.00168904371094
-0.00157266599126
-0.00145442783833
-0.0013345774496
-0.00121325266082
-0.00109071307816
-0.000967080937698
-0.000842672190629
-0.000717427989002
-0.000592094904277
-0.00170942989644
-0.000876848353073
-0.000413036468672
-0.000273356330581
-0.000412970024627
-0.000788277655374
-0.00135558471084
-0.00207285606302
-0.00289893057197
-0.00379456300288
-0.00472235260531
-0.00564740551636
-0.00653756828979
-0.0073639312759
-0.00810114108026
-0.0087277861312
-0.00922668166459
-0.00958513841033
-0.00979516655207
-0.00985359586775
-0.00976220145822
-0.00952763110399
-0.0091615114361
-0.00868009403348
-0.00810452271253
-0.00745998183265
-0.00677658757195
-0.00608761329204
-0.00543159339577
-0.00485032564029
-0.00485032424331
-0.00543155753985
-0.00608756719157
-0.00677654752508
-0.00745994597673
-0.00810449104756
-0.00868006702513
-0.00916148815304
-0.0095276106149
-0.00976218283176
-0.00985358003527
-0.00979515258223
-0.00958512630314
-0.00922667142004
-0.00872777588665
-0.00810113176703
-0.007363922894
-0.00653756083921
-0.0056473989971
-0.00472234608606
-0.00379455718212
-0.00289892521687
-0.00207285094075
-0.00135557970498
-0.000788272940554
-0.000412965484429
-0.000273351935903
-0.000413032248616
-0.000876844336744
-0.00170942617115
-0.00104464194737
0.0004184684949
0.00230510113761
0.00453849788755
0.00703836930916
0.00972298067063
0.0125110186636
0.0153235038742
0.0180846657604
0.0207231417298
0.0231727585196
0.0253733284771
0.0272713508457
0.0288206711411
0.0299830641598
0.0307287294418
0.0310367178172
0.0308952257037
0.0303018353879
0.0292635634542
0.0277969185263
0.025927701965
0.0236909128726
0.0211302936077
0.0182982888073
0.0152551690117
0.0120694627985
0.00881666876376
0.00558048440143
0.00245280191302
0.00245280144736
0.00558048440143
0.00881666876376
0.0120694627985
0.015255169943
0.0182982888073
0.0211302954704
0.0236909128726
0.0259277038276
0.0277969203889
0.0292635653168
0.0303018372506
0.030895229429
0.0310367196798
0.0307287313044
0.0299830660224
0.0288206730038
0.0272713508457
0.0253733284771
0.0231727585196
0.0207231417298
0.0180846620351
0.0153235020116
0.0125110158697
0.00972297880799
0.00703836837783
0.00453850161284
0.00230511347763
0.00041849698755
-0.00104459247086
-0.00431544333696
-0.00423744786531
-0.00415475107729
-0.00406833644956
-0.00397836277261
-0.00388521817513
-0.00378919416107
-0.00369053450413
-0.00358949182555
-0.00348628032953
-0.00338112446479
-0.0032742258627
-0.00316578662023
-0.00305599649437
-0.00294502219185
-0.00283303949982
-0.00272013875656
-0.0026065048296
-0.0024920089636
-0.00237721460871
-0.00226097553968
-0.00214588991366
-0.00431538699195
-0.00423699198291
-0.00415465468541
-0.00406812084839
-0.0039783064276
-0.00388512061909
-0.00378916645423
-0.00369049003348
-0.00358947971836
-0.00348626053892
-0.003381121438
-0.00327421841212
-0.0031657894142
-0.00305599626154
-0.00294502964243
-0.00283304369077
-0.00272015179507
-0.00260651158169
-0.00249203247949
-0.002377218334
-0.00226100767031
-0.00214586104266
-0.00299690081738
-0.00291983457282
-0.00283556734212
-0.00274613848887
-0.00265084416606
-0.00255037029274
-0.00244450033642
-0.00233372906223
-0.00221796496771
-0.0020975919906
-0.00197262875736
-0.00184337119572
-0.00170991802588
-0.0015725112753
-0.00143129972275
-0.0012864980381
-0.0011382852681
-0.000986865139566
-0.000832435151096
-0.000675197516102
-0.000515361840371
-0.000353133829776
-0.000188731821254
-2.2367328711e-05
0.000145733851241
0.000315354060149
0.000486259436002
0.000658227480017
0.000831013778225
0.0010043940274
0.00117810908705
0.00135193683673
0.00152559904382
0.0016988782445
0.00187147490215
0.00204317993484
0.0022136438638
0.0023827473633
0.00254998123273
0.00254997634329
0.00238274247386
0.00221363897435
0.0020431750454
0.0018714700127
0.00169887347147
0.00152559415437
0.0013519320637
0.00117810419761
0.00100438913796
0.000831008888781
0.000658222532365
0.000486254488351
0.000315349083394
0.000145728859934
-2.23723618547e-05
-0.000188736870768
-0.000353138922947
-0.000515366904438
-0.000675202638377
-0.000832440273371
-0.000986870261841
-0.00113829039037
-0.00128650327679
-0.00143130484503
-0.00157251639757
-0.00170992326457
-0.00184337643441
-0.00197263411246
-0.00209759734571
-0.00221797032282
-0.00233373441733
-0.00244450569153
-0.00255037564784
-0.00265084952116
-0.00274614384398
-0.00283557269722
-0.00291984016076
-0.00299690640531
0.00172292871866
0.00156974291895
0.00141550344415
0.00126018724404
0.00110408710316
0.00094727933174
0.000790013174992
0.000632412731647
0.000474698055768
0.000317019555951
0.000159578208695
2.53848315879e-06
-0.000153910601512
-0.000309598224703
-0.00046434320393
-0.000617973157205
-0.000770312908571
-0.000921191414818
-0.00107043900061
-0.00121788773686
-0.0013633739436
-0.0015067338245
-0.00164781091735
-0.00178644538391
-0.00192249054089
-0.00205578957684
-0.0021862082649
-0.00231359153986
-0.0024378222879
-0.00255874427967
-0.00267626252025
-0.00279021612369
-0.00290053710341
-0.00300704850815
-0.00310971145518
-0.00320830754936
-0.00330282049254
-0.00339295249432
-0.0034786905162
-0.0034785028547
-0.00339278019965
-0.00330270454288
-0.00320823327638
-0.00310967396945
-0.00300703174435
-0.0029005354736
-0.00279022031464
-0.00267627066933
-0.00255875266157
-0.00243782997131
-0.00231359829195
-0.00218621315435
-0.00205579330213
-0.0019224928692
-0.00178644713014
-0.00164781149942
-0.00150673405733
-0.00136337336153
-0.00121788703837
-0.00107043772005
-0.000921190192457
-0.000770311162341
-0.000617971585598
-0.000464341079351
-0.000309596216539
-0.000153908025823
2.54095175478e-06
0.000159581351909
0.000317022582749
0.000474701897474
0.00063241639873
0.00079001771519
0.000947283464484
0.00110409175977
0.00126019120216
0.00141550682019
0.00156974454876
0.001722928253
-0.00609043193981
-0.00811882782727
-0.0104671614245
-0.013020535931
-0.0156751479954
-0.0183341652155
-0.0209098923951
-0.0233228225261
-0.0255027376115
-0.0273888427764
-0.028930446133
-0.0300873089582
-0.0308300536126
-0.0311404131353
-0.0310113858432
-0.0304472446442
-0.0294634457678
-0.0280863679945
-0.0263529680669
-0.0243102908134
-0.0220149084926
-0.0195322744548
-0.0169359743595
-0.0143071170896
-0.0117334388196
-0.00930896960199
-0.0071328994818
-0.00531031470746
-0.0039499127306
-0.00316695170477
-0.00316694634967
-0.00394990807399
-0.00531031144783
-0.00713289668784
-0.00930896773934
-0.0117334378883
-0.014307118021
-0.0169359762222
-0.0195322763175
-0.0220149122179
-0.0243102945387
-0.0263529736549
-0.0280863754451
-0.0294634532183
-0.0304472539574
-0.0310113951564
-0.0311404261738
-0.0308300666511
-0.0300873238593
-0.0289304628968
-0.0273888595402
-0.025502756238
-0.0233228430152
-0.0209099166095
-0.0183341912925
-0.0156751777977
-0.0130205666646
-0.0104671958834
-0.00811886042356
-0.00609045941383
0.0033785472624
0.00414312351495
0.00496801547706
0.00581370713189
0.0066438340582
0.00742559274659
0.00812932942063
0.00872943643481
0.0092042433098
0.00953659228981
0.00971390958875
0.00972849968821
0.00957760028541
0.0092634614557
0.00879328977317
0.00817914120853
0.00743773765862
0.00659019174054
0.0056616961956
0.00468112528324
0.00368063198403
0.00269515253603
0.00176198000554
0.000920203048736
0.000210338985198
-0.000326265580952
-0.00064768944867
-0.000712006818503
-0.00047789607197
9.52652044361e-05
9.52682312345e-05
-0.000477890949696
-0.00071200018283
-0.000647681823466
-0.000326257140841
0.000210347847315
0.000920212303754
0.00176198931877
0.00269516208209
0.00368064129725
0.00468113459647
0.00566170550883
0.00659020105377
0.00743774650618
0.00817915052176
0.00879329815507
0.00926347076893
0.00957760866731
0.00972850807011
0.00971391703933
0.00953659974039
0.0092042516917
0.00872944388539
0.00812933687121
0.0074255997315
0.00664384104311
0.00581371365115
0.00496802199632
0.00414313003421
0.00337855354883
-0.00443063257262
-0.00435653282329
-0.00427560601383
-0.00418947311118
-0.0040977364406
-0.00400097575039
-0.00389909977093
-0.00379251781851
-0.00368120032363
-0.00356547813863
-0.00344539177604
-0.00332121388055
-0.00319304387085
-0.00306111644022
-0.00292557175271
-0.00278662401251
-0.00264443946071
-0.00249922368675
-0.0023511601612
-0.00220045330934
-0.00204729917459
-0.0018919040449
-0.00173447397538
-0.00157521886285
-0.00141435512342
-0.00125209451653
-0.00108866603114
-0.000924278865568
-0.000759181799367
-0.000593570701312
-0.000427727238275
-0.000261817825958
-9.61747937254e-05
6.90840970492e-05
0.000233555940213
0.000397194584366
0.000559465494007
0.000720579235349
0.000879309664015
0.000879316299688
0.000720581854694
0.000559469859581
0.00039719758206
0.000233558384934
6.9086883741e-05
-9.61734258453e-05
-0.000261815497652
-0.000427726423368
-0.000593568780459
-0.000759181275498
-0.000924277293961
-0.00108866568189
-0.00125209323596
-0.00141435477417
-0.00157521781512
-0.00173447362613
-0.00189190311357
-0.00204729894176
-0.00220045284368
-0.00235115992837
-0.00249922345392
-0.00264443922788
-0.00278662471101
-0.00292557198554
-0.00306111876853
-0.00319304526784
-0.00332121877
-0.00344539573416
-0.00356548791751
-0.00368120893836
-0.00379253481515
-0.00389911467209
-0.00400100182742
-0.0040977569297
-0.00418951315805
-0.00427562557161
-0.00435660919175
-0.00443064747378
0.00433666678146
0.00420772936195
0.00407452788204
0.00393722904846
0.0037960303016
0.00365110533312
0.00350268138573
0.00335092376918
0.00319610768929
0.00303835351951
0.00287811434828
0.00119299569633
0.00134588684887
0.00149670930114
0.00164490530733
0.00179042795207
0.00193297723308
0.00207240949385
0.00220846873708
0.00234097591601
0.00246966280974
0.00259435502812
0.00201179715805
0.00199441285804
0.00255828443915
0.00360267143697
0.00503127090633
0.00675136782229
0.0086744884029
0.0107164094225
0.0127978129312
0.0148447239771
0.0167891960591
0.0185699276626
0.0201329495758
0.0214322507381
0.0224303938448
0.0230990294367
0.023419354111
0.0233824551105
0.0229895394295
0.022252060473
0.0211917124689
0.0198403354734
0.0182396695018
0.0164410956204
0.0145052261651
0.0125015052035
0.0105077382177
0.00860976334661
0.00690091820434
0.00548209017143
0.00202569295652
0.00217441096902
0.00232103979215
0.00246561621316
0.00260794581845
0.00274789123796
0.00288526131772
0.00301988981664
0.00315157673322
0.00328015140258
0.00340544059873
0.00287810782902
0.00303834676743
0.0031961009372
0.00335091701709
0.00350267440081
0.0036510983482
0.00379602354951
0.00393722206354
0.00407452089712
0.00420772284269
0.0043366602622
0.00259433756582
0.00246965116821
0.0023409507703
0.00220843404531
0.00207237154245
0.00193294370547
0.00179040164221
0.00164488749579
0.00149669870734
0.00134588207584
0.00119299488142
0.00548208318651
0.0069009102881
0.00860975496471
0.0105077289045
0.012501494959
0.0145052159205
0.0164410844445
0.0182396583259
0.0198403224349
0.0211916994303
0.0222520455718
0.0229895245284
0.0233824402094
0.0234193373471
0.0230990126729
0.0224303752184
0.0214322339743
0.0201329309493
0.0185699071735
0.01678917557
0.0148447025567
0.0127977915108
0.0107163870707
0.00867446605116
0.00675134407356
0.00503124622628
0.00360264582559
0.00255825789645
0.00199438538402
0.00201177364215
0.00202567968518
0.00217438791879
0.00232100323774
0.00246556359343
0.00260787503794
0.00274780369364
0.00288516189903
0.00301979319192
0.00315149873495
0.00328011065722
0.00340543081984
-0.00335477781482
-0.00348789081909
-0.00361941033043