# vtk DataFile Version 2.0
Unstructured Grid Example
ASCII
DATASET UNSTRUCTURED_GRID
POINTS 45965 float
21.98300 3.92550 6.00000 
21.79400 3.92550 6.00000 
21.79400 -3.92550 6.00000 
21.79400 3.72920 6.00000 
21.79400 3.53300 6.00000 
21.79400 3.33670 6.00000 
21.79400 3.14040 6.00000 
21.79400 2.94410 6.00000 
21.79400 2.74790 6.00000 
21.79400 2.55160 6.00000 
21.79400 2.35530 6.00000 
21.79400 2.15900 6.00000 
21.79400 1.96270 6.00000 
21.79400 1.76650 6.00000 
21.79400 1.57020 6.00000 
21.79400 1.37390 6.00000 
21.79400 1.17770 6.00000 
21.79400 0.98140 6.00000 
21.79400 0.78510 6.00000 
21.79400 0.58880 6.00000 
21.79400 0.39260 6.00000 
21.79400 0.19630 6.00000 
21.79400 0.00000 6.00000 
21.79400 -0.19630 6.00000 
21.79400 -0.39260 6.00000 
21.79400 -0.58880 6.00000 
21.79400 -0.78510 6.00000 
21.79400 -0.98140 6.00000 
21.79400 -1.17770 6.00000 
21.79400 -1.37390 6.00000 
21.79400 -1.57020 6.00000 
21.79400 -1.76650 6.00000 
21.79400 -1.96270 6.00000 
21.79400 -2.15900 6.00000 
21.79400 -2.35530 6.00000 
21.79400 -2.55160 6.00000 
21.79400 -2.74790 6.00000 
21.79400 -2.94410 6.00000 
21.79400 -3.14040 6.00000 
21.79400 -3.33670 6.00000 
21.79400 -3.53300 6.00000 
21.79400 -3.72920 6.00000 
21.98300 -3.92550 6.00000 
21.98300 3.72920 6.00000 
21.98300 3.53300 6.00000 
21.98300 3.33670 6.00000 
21.98300 3.14040 6.00000 
21.98300 2.94410 6.00000 
21.98300 2.74790 6.00000 
21.98300 2.55160 6.00000 
21.98300 2.35530 6.00000 
21.98300 2.15900 6.00000 
21.98300 1.96270 6.00000 
21.98300 1.76650 6.00000 
21.98300 1.57020 6.00000 
21.98300 1.37390 6.00000 
21.98300 1.17770 6.00000 
21.98300 0.98140 6.00000 
21.98300 0.78510 6.00000 
21.98300 0.58880 6.00000 
21.98300 0.39260 6.00000 
21.98300 0.19630 6.00000 
21.98300 0.00000 6.00000 
21.98300 -0.19630 6.00000 
21.98300 -0.39260 6.00000 
21.98300 -0.58880 6.00000 
21.98300 -0.78510 6.00000 
21.98300 -0.98140 6.00000 
21.98300 -1.17770 6.00000 
21.98300 -1.37390 6.00000 
21.98300 -1.57020 6.00000 
21.98300 -1.76650 6.00000 
21.98300 -1.96270 6.00000 
21.98300 -2.15900 6.00000 
21.98300 -2.35530 6.00000 
21.98300 -2.55160 6.00000 
21.98300 -2.74790 6.00000 
21.98300 -2.94410 6.00000 
21.98300 -3.14040 6.00000 
21.98300 -3.33670 6.00000 
21.98300 -3.53300 6.00000 
21.98300 -3.72920 6.00000 
23.18300 3.92550 6.00000 
22.99400 3.92550 6.00000 
22.99400 -3.92550 6.00000 
22.99400 3.72920 6.00000 
22.99400 3.53300 6.00000 
22.99400 3.33670 6.00000 
22.99400 3.14040 6.00000 
22.99400 2.94410 6.00000 
22.99400 2.74790 6.00000 
22.99400 2.55160 6.00000 
22.99400 2.35530 6.00000 
22.99400 2.15900 6.00000 
22.99400 1.96270 6.00000 
22.99400 1.76650 6.00000 
22.99400 1.57020 6.00000 
22.99400 1.37390 6.00000 
22.99400 1.17770 6.00000 
22.99400 0.98140 6.00000 
22.99400 0.78510 6.00000 
22.99400 0.58880 6.00000 
22.99400 0.39260 6.00000 
22.99400 0.19630 6.00000 
22.99400 0.00000 6.00000 
22.99400 -0.19630 6.00000 
22.99400 -0.39260 6.00000 
22.99400 -0.58880 6.00000 
22.99400 -0.78510 6.00000 
22.99400 -0.98140 6.00000 
22.99400 -1.17770 6.00000 
22.99400 -1.37390 6.00000 
22.99400 -1.57020 6.00000 
22.99400 -1.76650 6.00000 
22.99400 -1.96270 6.00000 
22.99400 -2.15900 6.00000 
22.99400 -2.35530 6.00000 
22.99400 -2.55160 6.00000 
22.99400 -2.74790 6.00000 
22.99400 -2.94410 6.00000 
22.99400 -3.14040 6.00000 
22.99400 -3.33670 6.00000 
22.99400 -3.53300 6.00000 
22.99400 -3.72920 6.00000 
23.18300 -3.92550 6.00000 
23.18300 3.72920 6.00000 
23.18300 3.53300 6.00000 
23.18300 3.33670 6.00000 
23.18300 3.14040 6.00000 
23.18300 2.94410 6.00000 
23.18300 2.74790 6.00000 
23.18300 2.55160 6.00000 
23.18300 2.35530 6.00000 
23.18300 2.15900 6.00000 
23.18300 1.96270 6.00000 
23.18300 1.76650 6.00000 
23.18300 1.57020 6.00000 
23.18300 1.37390 6.00000 
23.18300 1.17770 6.00000 
23.18300 0.98140 6.00000 
23.18300 0.78510 6.00000 
23.18300 0.58880 6.00000 
23.18300 0.39260 6.00000 
23.18300 0.19630 6.00000 
23.18300 0.00000 6.00000 
23.18300 -0.19630 6.00000 
23.18300 -0.39260 6.00000 
23.18300 -0.58880 6.00000 
23.18300 -0.78510 6.00000 
23.18300 -0.98140 6.00000 
23.18300 -1.17770 6.00000 
23.18300 -1.37390 6.00000 
23.18300 -1.57020 6.00000 
23.18300 -1.76650 6.00000 
23.18300 -1.96270 6.00000 
23.18300 -2.15900 6.00000 
23.18300 -2.35530 6.00000 
23.18300 -2.55160 6.00000 
23.18300 -2.74790 6.00000 
23.18300 -2.94410 6.00000 
23.18300 -3.14040 6.00000 
23.18300 -3.33670 6.00000 
23.18300 -3.53300 6.00000 
23.18300 -3.72920 6.00000 
2.28600 4.30450 2.08200 
2.47600 4.30450 2.12200 
2.47600 4.30450 2.56900 
2.47600 4.30450 2.42000 
2.47600 4.30450 2.27100 
2.28600 4.30450 2.53000 
2.28600 4.30450 2.38100 
2.28600 4.30450 2.23100 
7.16300 4.30450 2.99500 
7.35300 4.30450 3.02600 
7.35300 4.30450 3.46000 
7.35300 4.30450 3.31500 
7.35300 4.30450 3.17000 
7.16300 4.30450 3.42900 
7.16300 4.30450 3.28500 
7.16300 4.30450 3.14000 
12.04000 4.30450 3.68200 
12.22900 4.30450 3.70500 
12.22900 4.30450 4.13500 
12.22900 4.30450 3.99200 
12.22900 4.30450 3.84800 
12.04000 4.30450 4.11300 
12.04000 4.30450 3.97000 
12.04000 4.30450 3.82600 
16.91700 4.30450 4.15200 
17.10700 4.30450 4.16500 
17.10700 4.30450 4.59900 
17.10700 4.30450 4.45400 
17.10700 4.30450 4.31000 
16.91700 4.30450 4.58400 
16.91700 4.30450 4.44000 
16.91700 4.30450 4.29600 
31.35800 4.30450 4.29900 
31.54800 4.30450 4.28900 
31.54800 4.30450 4.74600 
31.54800 4.30450 4.59300 
31.54800 4.30450 4.44100 
31.35800 4.30450 4.75500 
31.35800 4.30450 4.60300 
31.35800 4.30450 4.45100 
36.23600 4.30450 3.93700 
36.42500 4.30450 3.91900 
36.42500 4.30450 4.38200 
36.42500 4.30450 4.22800 
36.42500 4.30450 4.07300 
36.23600 4.30450 4.40000 
36.23600 4.30450 4.24600 
36.23600 4.30450 4.09100 
41.11200 4.30450 3.36800 
41.30200 4.30450 3.34100 
41.30200 4.30450 3.80900 
41.30200 4.30450 3.65300 
41.30200 4.30450 3.49700 
41.11200 4.30450 3.83500 
41.11200 4.30450 3.67900 
41.11200 4.30450 3.52300 
45.98900 4.30450 2.59000 
46.17900 4.30450 2.55500 
46.17900 4.30450 3.02100 
46.17900 4.30450 2.86600 
46.17900 4.30450 2.71100 
45.98900 4.30450 3.05600 
45.98900 4.30450 2.90000 
45.98900 4.30450 2.74500 
2.28600 3.92550 2.08200 
2.47600 3.92550 2.12200 
2.47600 3.92550 2.56900 
2.47600 3.92550 2.42000 
2.47600 3.92550 2.27100 
2.28600 3.92550 2.53000 
2.28600 3.92550 2.38100 
2.28600 3.92550 2.23100 
7.16300 3.92550 2.99500 
7.35300 3.92550 3.02600 
7.35300 3.92550 3.46000 
7.35300 3.92550 3.31500 
7.35300 3.92550 3.17000 
7.16300 3.92550 3.42900 
7.16300 3.92550 3.28500 
7.16300 3.92550 3.14000 
12.04000 3.92550 3.68200 
12.22900 3.92550 3.70500 
12.22900 3.92550 4.13500 
12.22900 3.92550 3.99200 
12.22900 3.92550 3.84800 
12.04000 3.92550 4.11300 
12.04000 3.92550 3.97000 
12.04000 3.92550 3.82600 
16.91700 3.92550 4.15200 
17.10700 3.92550 4.16500 
17.10700 3.92550 4.59900 
17.10700 3.92550 4.45400 
17.10700 3.92550 4.31000 
16.91700 3.92550 4.58400 
16.91700 3.92550 4.44000 
16.91700 3.92550 4.29600 
31.35800 3.92550 4.29900 
31.54800 3.92550 4.28900 
31.54800 3.92550 4.74600 
31.54800 3.92550 4.59300 
31.54800 3.92550 4.44100 
31.35800 3.92550 4.75500 
31.35800 3.92550 4.60300 
31.35800 3.92550 4.45100 
36.23600 3.92550 3.93700 
36.42500 3.92550 3.91900 
36.42500 3.92550 4.38200 
36.42500 3.92550 4.22800 
36.42500 3.92550 4.07300 
36.23600 3.92550 4.40000 
36.23600 3.92550 4.24600 
36.23600 3.92550 4.09100 
41.11200 3.92550 3.36800 
41.30200 3.92550 3.34100 
41.30200 3.92550 3.80900 
41.30200 3.92550 3.65300 
41.30200 3.92550 3.49700 
41.11200 3.92550 3.83500 
41.11200 3.92550 3.67900 
41.11200 3.92550 3.52300 
45.98900 3.92550 2.59000 
46.17900 3.92550 2.55500 
46.17900 3.92550 3.02100 
46.17900 3.92550 2.86600 
46.17900 3.92550 2.71100 
45.98900 3.92550 3.05600 
45.98900 3.92550 2.90000 
45.98900 3.92550 2.74500 
2.09700 4.30450 2.04200 
2.09700 4.30450 0.45700 
2.09700 4.30450 0.65500 
2.09700 4.30450 0.85300 
2.09700 4.30450 1.05100 
2.09700 4.30450 1.25000 
2.09700 4.30450 1.44800 
2.09700 4.30450 1.64600 
2.09700 4.30450 1.84400 
2.28600 4.30450 0.45700 
2.28600 4.30450 0.63800 
2.28600 4.30450 0.81800 
2.28600 4.30450 0.99900 
2.28600 4.30450 1.17900 
2.28600 4.30450 1.36000 
2.28600 4.30450 1.54100 
2.28600 4.30450 1.72100 
2.28600 4.30450 1.90200 
2.47600 4.30450 0.45700 
2.47600 4.30450 0.64200 
2.47600 4.30450 0.82700 
2.47600 4.30450 1.01200 
2.47600 4.30450 1.19700 
2.47600 4.30450 1.38200 
2.47600 4.30450 1.56700 
2.47600 4.30450 1.75200 
2.47600 4.30450 1.93700 
2.09700 3.92550 2.04200 
2.09700 3.92550 0.45700 
2.09700 3.92550 0.65500 
2.09700 3.92550 0.85300 
2.09700 3.92550 1.05100 
2.09700 3.92550 1.25000 
2.09700 3.92550 1.44800 
2.09700 3.92550 1.64600 
2.09700 3.92550 1.84400 
2.28600 3.92550 0.45700 
2.28600 3.92550 0.63800 
2.28600 3.92550 0.81800 
2.28600 3.92550 0.99900 
2.28600 3.92550 1.17900 
2.28600 3.92550 1.36000 
2.28600 3.92550 1.54100 
2.28600 3.92550 1.72100 
2.28600 3.92550 1.90200 
2.47600 3.92550 0.45700 
2.47600 3.92550 0.64200 
2.47600 3.92550 0.82700 
2.47600 3.92550 1.01200 
2.47600 3.92550 1.19700 
2.47600 3.92550 1.38200 
2.47600 3.92550 1.56700 
2.47600 3.92550 1.75200 
2.47600 3.92550 1.93700 
7.35300 4.30450 0.45700 
7.35300 4.30450 0.65500 
7.35300 4.30450 0.85200 
7.35300 4.30450 1.05000 
7.35300 4.30450 1.24700 
7.35300 4.30450 1.44500 
7.35300 4.30450 1.64300 
7.35300 4.30450 1.84000 
7.35300 4.30450 2.03800 
7.35300 4.30450 2.23500 
7.35300 4.30450 2.43300 
7.35300 4.30450 2.63000 
7.35300 4.30450 2.82800 
7.16300 4.30450 0.45700 
7.16300 4.30450 0.65200 
7.16300 4.30450 0.84700 
7.16300 4.30450 1.04300 
7.16300 4.30450 1.23800 
7.16300 4.30450 1.43300 
7.16300 4.30450 1.62800 
7.16300 4.30450 1.82300 
[...]
POINT_DATA 45965
VECTORS U float
-3.06e-06 -0.00232 2.79e-05 
-3.03e-06 -0.00232 2.76e-05 
-5.4e-06 -0.00232 -4.56e-05 
-3.14e-06 -0.00232 2.17e-05 
-3.24e-06 -0.00232 1.62e-05 
-3.34e-06 -0.00232 1.12e-05 
-3.44e-06 -0.00232 6.4e-06 
-3.53e-06 -0.00232 1.89e-06 
-3.62e-06 -0.00232 -2.37e-06 
-3.71e-06 -0.00232 -6.38e-06 
-3.79e-06 -0.00232 -1.01e-05 
-3.88e-06 -0.00232 -1.37e-05 
-3.95e-06 -0.00232 -1.69e-05 
-4.03e-06 -0.00232 -2e-05 
-4.1e-06 -0.00232 -2.29e-05 
-4.18e-06 -0.00232 -2.55e-05 
-4.24e-06 -0.00232 -2.79e-05 
-4.31e-06 -0.00232 -3.02e-05 
-4.37e-06 -0.00232 -3.22e-05 
-4.44e-06 -0.00232 -3.41e-05 
-4.5e-06 -0.00232 -3.58e-05 
-4.55e-06 -0.00232 -3.74e-05 
-4.61e-06 -0.00232 -3.88e-05 
-4.66e-06 -0.00232 -4e-05 
-4.71e-06 -0.00232 -4.11e-05 
-4.76e-06 -0.00232 -4.21e-05 
-4.81e-06 -0.00232 -4.29e-05 
-4.85e-06 -0.00232 -4.36e-05 
-4.9e-06 -0.00232 -4.43e-05 
-4.94e-06 -0.00232 -4.48e-05 
-4.98e-06 -0.00232 -4.52e-05 
-5.02e-06 -0.00232 -4.55e-05 
-5.06e-06 -0.00232 -4.58e-05 
-5.09e-06 -0.00232 -4.6e-05 
-5.13e-06 -0.00232 -4.61e-05 
-5.17e-06 -0.00232 -4.61e-05 
-5.2e-06 -0.00232 -4.61e-05 
-5.24e-06 -0.00232 -4.61e-05 
-5.27e-06 -0.00232 -4.6e-05 
-5.3e-06 -0.00232 -4.6e-05 
-5.34e-06 -0.00232 -4.58e-05 
-5.37e-06 -0.00232 -4.57e-05 
-5.41e-06 -0.00232 -4.52e-05 
-2.98e-06 -0.00232 2.22e-05 
-3.16e-06 -0.00232 1.67e-05 
-3.26e-06 -0.00232 1.16e-05 
-3.36e-06 -0.00232 6.8e-06 
-3.45e-06 -0.00232 2.27e-06 
-3.55e-06 -0.00232 -2e-06 
-3.64e-06 -0.00232 -6.01e-06 
-3.72e-06 -0.00232 -9.78e-06 
-3.81e-06 -0.00232 -1.33e-05 
-3.89e-06 -0.00232 -1.66e-05 
-3.97e-06 -0.00232 -1.97e-05 
-4.04e-06 -0.00232 -2.25e-05 
-4.12e-06 -0.00232 -2.52e-05 
-4.19e-06 -0.00232 -2.76e-05 
-4.26e-06 -0.00232 -2.99e-05 
-4.32e-06 -0.00232 -3.19e-05 
-4.39e-06 -0.00232 -3.38e-05 
-4.45e-06 -0.00232 -3.55e-05 
-4.51e-06 -0.00232 -3.71e-05 
-4.56e-06 -0.00232 -3.85e-05 
-4.62e-06 -0.00232 -3.97e-05 
-4.67e-06 -0.00232 -4.08e-05 
-4.72e-06 -0.00232 -4.18e-05 
-4.77e-06 -0.00232 -4.26e-05 
-4.82e-06 -0.00232 -4.34e-05 
-4.86e-06 -0.00232 -4.4e-05 
-4.91e-06 -0.00232 -4.45e-05 
-4.95e-06 -0.00232 -4.49e-05 
-4.99e-06 -0.00232 -4.52e-05 
-5.03e-06 -0.00232 -4.55e-05 
-5.07e-06 -0.00232 -4.56e-05 
-5.11e-06 -0.00232 -4.58e-05 
-5.15e-06 -0.00232 -4.58e-05 
-5.19e-06 -0.00232 -4.58e-05 
-5.22e-06 -0.00232 -4.58e-05 
-5.26e-06 -0.00232 -4.57e-05 
-5.3e-06 -0.00232 -4.56e-05 
-5.33e-06 -0.00232 -4.55e-05 
-5.37e-06 -0.00232 -4.54e-05 
-3.91e-06 -0.00232 3.2e-05 
-3.89e-06 -0.00232 3.14e-05 
-5.19e-06 -0.00232 -4.21e-05 
-3.98e-06 -0.00232 2.74e-05 
-4.06e-06 -0.00232 2.37e-05 
-4.14e-06 -0.00232 2.01e-05 
-4.22e-06 -0.00232 1.67e-05 
-4.29e-06 -0.00232 1.34e-05 
-4.36e-06 -0.00232 1.03e-05 
-4.43e-06 -0.00232 7.27e-06 
-4.49e-06 -0.00232 4.37e-06 
-4.55e-06 -0.00232 1.59e-06 
-4.6e-06 -0.00232 -1.07e-06 
-4.66e-06 -0.00232 -3.61e-06 
-4.71e-06 -0.00232 -6.04e-06 
-4.75e-06 -0.00232 -8.37e-06 
-4.8e-06 -0.00232 -1.06e-05 
-4.84e-06 -0.00232 -1.27e-05 
-4.87e-06 -0.00232 -1.47e-05 
-4.91e-06 -0.00232 -1.66e-05 
-4.94e-06 -0.00232 -1.85e-05 
-4.97e-06 -0.00232 -2.02e-05 
-5e-06 -0.00232 -2.19e-05 
-5.02e-06 -0.00232 -2.35e-05 
-5.04e-06 -0.00232 -2.5e-05 
-5.06e-06 -0.00232 -2.64e-05 
-5.08e-06 -0.00232 -2.77e-05 
-5.1e-06 -0.00232 -2.9e-05 
-5.11e-06 -0.00232 -3.02e-05 
-5.12e-06 -0.00232 -3.14e-05 
-5.14e-06 -0.00232 -3.25e-05 
-5.15e-06 -0.00232 -3.35e-05 
-5.15e-06 -0.00232 -3.45e-05 
-5.16e-06 -0.00232 -3.54e-05 
-5.17e-06 -0.00232 -3.63e-05 
-5.17e-06 -0.00232 -3.71e-05 
-5.17e-06 -0.00232 -3.79e-05 
-5.18e-06 -0.00232 -3.87e-05 
-5.18e-06 -0.00232 -3.95e-05 
-5.18e-06 -0.00232 -4.02e-05 
-5.18e-06 -0.00232 -4.08e-05 
-5.19e-06 -0.00232 -4.15e-05 
-5.19e-06 -0.00232 -4.17e-05 
-3.91e-06 -0.00232 2.81e-05 
-4.03e-06 -0.00232 2.43e-05 
-4.11e-06 -0.00232 2.07e-05 
-4.19e-06 -0.00232 1.73e-05 
-4.26e-06 -0.00232 1.4e-05 
-4.33e-06 -0.00232 1.08e-05 
-4.4e-06 -0.00232 7.8e-06 
-4.46e-06 -0.00232 4.89e-06 
-4.52e-06 -0.00232 2.1e-06 
-4.58e-06 -0.00232 -5.73e-07 
-4.63e-06 -0.00232 -3.13e-06 
-4.68e-06 -0.00232 -5.57e-06 
-4.73e-06 -0.00232 -7.91e-06 
-4.77e-06 -0.00232 -1.01e-05 
-4.81e-06 -0.00232 -1.23e-05 
-4.85e-06 -0.00232 -1.43e-05 
-4.89e-06 -0.00232 -1.62e-05 
-4.92e-06 -0.00232 -1.81e-05 
-4.95e-06 -0.00232 -1.98e-05 
-4.98e-06 -0.00232 -2.15e-05 
-5e-06 -0.00232 -2.3e-05 
-5.03e-06 -0.00232 -2.45e-05 
-5.05e-06 -0.00232 -2.6e-05 
-5.07e-06 -0.00232 -2.73e-05 
-5.08e-06 -0.00232 -2.86e-05 
-5.1e-06 -0.00232 -2.98e-05 
-5.11e-06 -0.00232 -3.1e-05 
-5.12e-06 -0.00232 -3.21e-05 
-5.13e-06 -0.00232 -3.31e-05 
-5.14e-06 -0.00232 -3.41e-05 
-5.15e-06 -0.00232 -3.5e-05 
-5.16e-06 -0.00232 -3.59e-05 
-5.16e-06 -0.00232 -3.67e-05 
-5.17e-06 -0.00232 -3.75e-05 
-5.17e-06 -0.00232 -3.83e-05 
-5.17e-06 -0.00232 -3.9e-05 
-5.18e-06 -0.00232 -3.98e-05 
-5.18e-06 -0.00232 -4.04e-05 
-5.18e-06 -0.00232 -4.11e-05 
5.43e-05 -0.000606 -5.36e-06 
5.4e-05 -0.000652 -5.07e-06 
5.29e-05 -0.00064 -4.79e-06 
5.33e-05 -0.000644 -4.97e-06 
5.36e-05 -0.000648 -5.06e-06 
5.38e-05 -0.000596 -4.99e-06 
5.4e-05 -0.000599 -5.12e-06 
5.42e-05 -0.000603 -5.25e-06 
3.45e-05 -0.00148 8.85e-06 
3.4e-05 -0.00151 9.6e-06 
3.16e-05 -0.00151 1e-05 
3.24e-05 -0.00151 9.85e-06 
3.31e-05 -0.00151 9.71e-06 
3.24e-05 -0.00149 9.22e-06 
3.31e-05 -0.00149 9.11e-06 
3.39e-05 -0.00148 8.96e-06 
1.79e-05 -0.00195 2.6e-05 
1.76e-05 -0.00196 2.65e-05 
1.61e-05 -0.00198 2.68e-05 
1.66e-05 -0.00197 2.67e-05 
1.71e-05 -0.00197 2.66e-05 
1.66e-05 -0.00196 2.63e-05 
1.71e-05 -0.00196 2.62e-05 
1.75e-05 -0.00195 2.61e-05 
9.14e-06 -0.00216 3.9e-05 
9.01e-06 -0.00216 3.94e-05 
7.86e-06 -0.00219 3.96e-05 
8.23e-06 -0.00218 3.95e-05 
8.6e-06 -0.00217 3.95e-05 
8.06e-06 -0.00218 3.91e-05 
8.43e-06 -0.00217 3.91e-05 
8.8e-06 -0.00217 3.9e-05 
-3.81e-06 -0.00221 4.22e-05 
-3.94e-06 -0.00221 4.19e-05 
-3.05e-06 -0.00223 4.2e-05 
-3.36e-06 -0.00222 4.2e-05 
-3.66e-06 -0.00221 4.19e-05 
-2.81e-06 -0.00223 4.24e-05 
-3.13e-06 -0.00223 4.23e-05 
-3.44e-06 -0.00222 4.23e-05 
-1.28e-05 -0.00201 3.15e-05 
-1.31e-05 -0.002 3.09e-05 
-1.13e-05 -0.00201 3.11e-05 
-1.19e-05 -0.002 3.11e-05 
-1.25e-05 -0.002 3.1e-05 
-1.09e-05 -0.00202 3.18e-05 
-1.15e-05 -0.00202 3.17e-05 
-1.21e-05 -0.00201 3.16e-05 
-2.49e-05 -0.00158 1.51e-05 
-2.51e-05 -0.00155 1.49e-05 
-2.45e-05 -0.00155 1.52e-05 
-2.47e-05 -0.00155 1.51e-05 
-2.49e-05 -0.00155 1.5e-05 
-2.39e-05 -0.00157 1.54e-05 
-2.42e-05 -0.00157 1.53e-05 
-2.45e-05 -0.00157 1.52e-05 
-3.34e-05 -0.000857 7.02e-06 
-3.36e-05 -0.000826 6.3e-06 
-3.21e-05 -0.00083 6.43e-06 
-3.26e-05 -0.000829 6.39e-06 
-3.3e-05 -0.000827 6.34e-06 
-3.18e-05 -0.00086 7.05e-06 
-3.23e-05 -0.000859 7.01e-06 
-3.28e-05 -0.000858 6.99e-06 
-3.59e-05 -0.000606 2.41e-06 
-3.57e-05 -0.000652 2.55e-06 
-3.55e-05 -0.00064 2.25e-06 
-3.56e-05 -0.000644 2.42e-06 
-3.55e-05 -0.000648 2.52e-06 
-3.64e-05 -0.000596 2.01e-06 
-3.62e-05 -0.000599 2.14e-06 
-3.61e-05 -0.000603 2.28e-06 
-1.87e-05 -0.00148 3.65e-06 
-1.83e-05 -0.00151 3.7e-06 
-1.77e-05 -0.00151 3.31e-06 
-1.79e-05 -0.00151 3.45e-06 
-1.8e-05 -0.00151 3.58e-06 
-1.84e-05 -0.00149 3.3e-06 
-1.85e-05 -0.00149 3.41e-06 
-1.86e-05 -0.00148 3.54e-06 
-6.15e-06 -0.00195 1.13e-05 
-6.01e-06 -0.00196 1.17e-05 
-6.69e-06 -0.00198 1.15e-05 
-6.45e-06 -0.00197 1.15e-05 
-6.19e-06 -0.00197 1.16e-05 
-7.02e-06 -0.00196 1.1e-05 
-6.75e-06 -0.00196 1.11e-05 
-6.47e-06 -0.00195 1.12e-05 
-8.26e-07 -0.00216 1.95e-05 
-7.71e-07 -0.00216 1.97e-05 
-1.05e-06 -0.00219 1.95e-05 
-9.48e-07 -0.00218 1.96e-05 
-8.46e-07 -0.00217 1.96e-05 
-1.17e-06 -0.00218 1.94e-05 
-1.06e-06 -0.00217 1.94e-05 
-9.55e-07 -0.00217 1.94e-05 
6.38e-06 -0.00221 2.41e-05 
6.46e-06 -0.00221 2.42e-05 
6.27e-06 -0.00223 2.41e-05 
6.34e-06 -0.00222 2.41e-05 
6.41e-06 -0.00221 2.42e-05 
6.1e-06 -0.00223 2.4e-05 
6.18e-06 -0.00223 2.41e-05 
6.26e-06 -0.00222 2.41e-05 
1.32e-05 -0.00201 2.25e-05 
1.34e-05 -0.002 2.25e-05 
1.31e-05 -0.00201 2.23e-05 
1.32e-05 -0.002 2.23e-05 
1.33e-05 -0.002 2.24e-05 
1.28e-05 -0.00202 2.22e-05 
1.29e-05 -0.00202 2.23e-05 
1.3e-05 -0.00201 2.24e-05 
2.24e-05 -0.00157 1.84e-05 
2.25e-05 -0.00155 1.78e-05 
2.4e-05 -0.00155 1.75e-05 
2.35e-05 -0.00155 1.76e-05 
2.3e-05 -0.00155 1.77e-05 
2.35e-05 -0.00157 1.81e-05 
2.31e-05 -0.00157 1.82e-05 
2.27e-05 -0.00157 1.83e-05 
2.76e-05 -0.000857 3.61e-06 
2.76e-05 -0.000826 3.45e-06 
2.83e-05 -0.00083 3.3e-06 
2.81e-05 -0.000829 3.34e-06 
2.78e-05 -0.000827 3.4e-06 
2.82e-05 -0.00086 3.58e-06 
2.8e-05 -0.000859 3.62e-06 
2.77e-05 -0.000858 3.64e-06 
5.45e-05 -0.000556 -5e-06 
5.87e-05 -0.000589 -2.15e-06 
5.87e-05 -0.000583 -3.38e-06 
5.88e-05 -0.000579 -4.37e-06 
5.84e-05 -0.000576 -5.18e-06 
5.76e-05 -0.000574 -5.7e-06 
5.66e-05 -0.000571 -5.98e-06 
5.56e-05 -0.000568 -5.98e-06 
5.48e-05 -0.000563 -5.69e-06 
5.82e-05 -0.000639 -3.36e-06 
5.9e-05 -0.000637 -3.78e-06 
5.91e-05 -0.000634 -4.32e-06 
5.87e-05 -0.00063 -4.66e-06 
5.8e-05 -0.000627 -4.94e-06 
5.71e-05 -0.000623 -5.17e-06 
5.61e-05 -0.000619 -5.28e-06 
5.52e-05 -0.000614 -5.33e-06 
5.46e-05 -0.00061 -5.35e-06 
5.75e-05 -0.000685 -4.85e-06 
5.91e-05 -0.000689 -4.44e-06 
5.91e-05 -0.000688 -4.17e-06 
5.87e-05 -0.000683 -4.1e-06 
5.8e-05 -0.000678 -4.11e-06 
5.7e-05 -0.000672 -4.18e-06 
5.6e-05 -0.000666 -4.34e-06 
5.51e-05 -0.000661 -4.58e-06 
5.46e-05 -0.000657 -4.85e-06 
-3.61e-05 -0.000556 1.55e-06 
-3.55e-05 -0.000648 -1.28e-06 
-3.61e-05 -0.00063 2.41e-09 
-3.7e-05 -0.000608 1.02e-06 
-3.72e-05 -0.000593 1.84e-06 
-3.7e-05 -0.000584 2.37e-06 
-3.66e-05 -0.000577 2.65e-06 
-3.61e-05 -0.000571 2.63e-06 
-3.58e-05 -0.000564 2.3e-06 
-3.48e-05 -0.00064 8.51e-07 
-3.64e-05 -0.000637 1.17e-06 
-3.71e-05 -0.000634 1.63e-06 
-3.74e-05 -0.00063 1.94e-06 
-3.72e-05 -0.000627 2.18e-06 
-3.69e-05 -0.000623 2.37e-06 
-3.64e-05 -0.000619 2.44e-06 
-3.59e-05 -0.000614 2.45e-06 
-3.57e-05 -0.00061 2.43e-06 
-3.4e-05 -0.000636 3.11e-06 
-3.64e-05 -0.000642 2.61e-06 
-3.72e-05 -0.000656 2.2e-06 
-3.74e-05 -0.000664 2.01e-06 
-3.72e-05 -0.000667 1.92e-06 
-3.68e-05 -0.000665 1.9e-06 
-3.63e-05 -0.000663 1.99e-06 
-3.59e-05 -0.000659 2.17e-06 
-3.58e-05 -0.000656 2.39e-06 
3.53e-05 -0.00147 7.74e-06 
3.62e-05 -0.00148 7.94e-06 
3.65e-05 -0.00148 8.12e-06 
3.68e-05 -0.00148 8.25e-06 
3.7e-05 -0.00149 8.39e-06 
3.7e-05 -0.00149 8.51e-06 
3.7e-05 -0.00149 8.64e-06 
3.69e-05 -0.00149 8.77e-06 
3.67e-05 -0.0015 8.89e-06 
3.64e-05 -0.0015 9.01e-06 
3.6e-05 -0.0015 9.13e-06 
3.56e-05 -0.0015 9.25e-06 
3.51e-05 -0.00151 9.43e-06 
3.57e-05 -0.00145 8.37e-06 
3.62e-05 -0.00145 8.44e-06 
3.66e-05 -0.00145 8.43e-06 
3.68e-05 -0.00146 8.47e-06 
3.7e-05 -0.00146 8.5e-06 
3.71e-05 -0.00146 8.53e-06 
3.7e-05 -0.00146 8.57e-06 
3.69e-05 -0.00147 8.6e-06 
3.67e-05 -0.00147 8.64e-06 
3.65e-05 -0.00147 8.68e-06 
3.61e-05 -0.00147 8.73e-06 
3.56e-05 -0.00148 8.78e-06 
3.51e-05 -0.00148 8.78e-06 
3.49e-05 -0.00146 8.39e-06 
3.6e-05 -0.00143 8.86e-06 
3.61e-05 -0.00143 8.81e-06 
3.65e-05 -0.00143 8.76e-06 
3.68e-05 -0.00143 8.69e-06 
3.7e-05 -0.00143 8.62e-06 
3.71e-05 -0.00144 8.56e-06 
3.7e-05 -0.00144 8.51e-06 
3.69e-05 -0.00144 8.46e-06 
3.68e-05 -0.00144 8.42e-06 
3.65e-05 -0.00144 8.38e-06 
3.61e-05 -0.00145 8.35e-06 
3.57e-05 -0.00145 8.32e-06 
3.52e-05 -0.00145 8.32e-06 
-6.89e-06 -0.00145 5.34e-06 
-8.6e-06 -0.00145 5.23e-06 
-9.97e-06 -0.00147 5.12e-06 
-1.13e-05 -0.00148 5.02e-06 
-1.25e-05 -0.00148 4.93e-06 
-1.36e-05 -0.00149 4.83e-06 
-1.46e-05 -0.00149 4.72e-06 
-1.56e-05 -0.00149 4.6e-06 
-1.64e-05 -0.0015 4.48e-06 
-1.71e-05 -0.0015 4.35e-06 
-1.77e-05 -0.0015 4.22e-06 
-1.82e-05 -0.0015 4.08e-06 
-1.85e-05 -0.00151 3.88e-06 
-7.11e-06 -0.00145 3.85e-06 
-8.57e-06 -0.00145 3.81e-06 
-9.95e-06 -0.00145 3.83e-06 
-1.12e-05 -0.00146 3.82e-06 
-1.24e-05 -0.00146 3.81e-06 
-1.36e-05 -0.00146 3.8e-06 
-1.46e-05 -0.00146 3.79e-06 
-1.55e-05 -0.00147 3.77e-06 
-1.63e-05 -0.00147 3.76e-06 
-1.7e-05 -0.00147 3.74e-06 
-1.76e-05 -0.00147 3.71e-06 
-1.81e-05 -0.00148 3.69e-06 
-1.85e-05 -0.00148 3.71e-06 
-1.9e-05 -0.00146 3.35e-06 
-7.34e-06 -0.00145 2.41e-06 
-8.52e-06 -0.00145 2.47e-06 
-9.9e-06 -0.00144 2.53e-06 
-1.12e-05 -0.00144 2.6e-06 
-1.24e-05 -0.00144 2.68e-06 
-1.35e-05 -0.00144 2.76e-06 
-1.45e-05 -0.00144 2.84e-06 
-1.54e-05 -0.00144 2.92e-06 
-1.62e-05 -0.00144 3e-06 
-1.7e-05 -0.00144 3.09e-06 
-1.76e-05 -0.00145 3.18e-06 
-1.81e-05 -0.00145 3.27e-06 
-1.84e-05 -0.00145 3.34e-06 
2.2e-05 -0.00185 2.35e-05 
2.21e-05 -0.00185 2.38e-05 
2.19e-05 -0.00186 2.4e-05 
2.17e-05 -0.00187 2.43e-05 
2.15e-05 -0.00187 2.45e-05 
2.13e-05 -0.00188 2.47e-05 
2.11e-05 -0.00188 2.49e-05 
2.09e-05 -0.00189 2.51e-05 
2.07e-05 -0.0019 2.52e-05 
2.04e-05 -0.0019 2.54e-05 
2.02e-05 -0.00191 2.56e-05 
1.99e-05 -0.00192 2.57e-05 
1.96e-05 -0.00192 2.58e-05 
1.93e-05 -0.00193 2.6e-05 
1.9e-05 -0.00194 2.61e-05 
1.86e-05 -0.00194 2.62e-05 
1.83e-05 -0.00195 2.64e-05 
2.23e-05 -0.00184 2.34e-05 
2.21e-05 -0.00184 2.37e-05 
2.2e-05 -0.00185 2.39e-05 
2.18e-05 -0.00185 2.41e-05 
2.16e-05 -0.00186 2.43e-05 
2.14e-05 -0.00187 2.45e-05 
2.12e-05 -0.00187 2.47e-05 
2.1e-05 -0.00188 2.48e-05 
2.07e-05 -0.00188 2.5e-05 
2.05e-05 -0.00189 2.51e-05 
2.02e-05 -0.0019 2.53e-05 
2e-05 -0.0019 2.54e-05 
1.97e-05 -0.00191 2.55e-05 
1.94e-05 -0.00192 2.57e-05 
1.9e-05 -0.00192 2.58e-05 
1.87e-05 -0.00193 2.59e-05 
1.83e-05 -0.00194 2.59e-05 
1.82e-05 -0.00193 2.57e-05 
2.26e-05 -0.00183 2.32e-05 
2.22e-05 -0.00183 2.34e-05 
2.2e-05 -0.00184 2.37e-05 
2.19e-05 -0.00184 2.39e-05 
2.17e-05 -0.00185 2.41e-05 
2.15e-05 -0.00185 2.43e-05 
2.13e-05 -0.00186 2.44e-05 
2.1e-05 -0.00187 2.46e-05 
2.08e-05 -0.00187 2.47e-05 
2.06e-05 -0.00188 2.49e-05 
2.03e-05 -0.00189 2.5e-05 
2e-05 -0.00189 2.51e-05 
1.97e-05 -0.0019 2.52e-05 
1.94e-05 -0.00191 2.53e-05 
1.91e-05 -0.00191 2.54e-05 
1.88e-05 -0.00192 2.55e-05 
1.84e-05 -0.00193 2.56e-05 
3.15e-06 -0.00184 1.47e-05 
2.3e-06 -0.00184 1.44e-05 
1.55e-06 -0.00185 1.41e-05 
8.65e-07 -0.00186 1.39e-05 
2.29e-07 -0.00187 1.36e-05 
-3.64e-07 -0.00188 1.34e-05 
-9.19e-07 -0.00188 1.32e-05 
-1.44e-06 -0.00189 1.3e-05 
-1.94e-06 -0.0019 1.28e-05 
-2.42e-06 -0.0019 1.26e-05 
-2.88e-06 -0.00191 1.25e-05 
-3.34e-06 -0.00192 1.23e-05 
-3.79e-06 -0.00192 1.22e-05 
-4.24e-06 -0.00193 1.21e-05 
-4.71e-06 -0.00194 1.2e-05 
-5.19e-06 -0.00194 1.19e-05 
-5.7e-06 -0.00195 1.18e-05 
3.02e-06 -0.00184 1.39e-05 
2.22e-06 -0.00184 1.36e-05 
1.49e-06 -0.00185 1.34e-05 
8.09e-07 -0.00185 1.32e-05 
1.81e-07 -0.00186 1.3e-05 
-4.05e-07 -0.00187 1.28e-05 
-9.54e-07 -0.00187 1.26e-05 
-1.47e-06 -0.00188 1.25e-05 
-1.96e-06 -0.00188 1.23e-05 
-2.44e-06 -0.00189 1.22e-05 
-2.89e-06 -0.0019 1.2e-05 
-3.34e-06 -0.0019 1.19e-05 
-3.79e-06 -0.00191 1.17e-05 
-4.23e-06 -0.00192 1.16e-05 
-4.69e-06 -0.00192 1.15e-05 
-5.16e-06 -0.00193 1.14e-05 
-5.66e-06 -0.00194 1.13e-05 
-6.28e-06 -0.00193 1.07e-05 
2.88e-06 -0.00184 1.3e-05 
2.17e-06 -0.00184 1.29e-05 
1.44e-06 -0.00184 1.27e-05 
7.68e-07 -0.00185 1.26e-05 
1.45e-07 -0.00185 1.24e-05 
-4.36e-07 -0.00186 1.23e-05 
-9.8e-07 -0.00186 1.21e-05 
-1.49e-06 -0.00187 1.2e-05 
-1.98e-06 -0.00187 1.18e-05 
-2.45e-06 -0.00188 1.17e-05 
-2.9e-06 -0.00189 1.16e-05 
-3.35e-06 -0.00189 1.14e-05 
-3.79e-06 -0.0019 1.13e-05 
-4.23e-06 -0.00191 1.12e-05 
-4.68e-06 -0.00191 1.11e-05 
-5.14e-06 -0.00192 1.1e-05 
-5.6e-06 -0.00193 1.08e-05 
1.28e-05 -0.002 3.54e-05 
1.26e-05 -0.002 3.57e-05 
1.23e-05 -0.00201 3.6e-05 
1.21e-05 -0.00202 3.63e-05 
1.19e-05 -0.00203 3.66e-05 
1.18e-05 -0.00203 3.69e-05 
1.16e-05 -0.00204 3.71e-05 
1.15e-05 -0.00205 3.74e-05 
1.14e-05 -0.00206 3.76e-05 
1.13e-05 -0.00207 3.78e-05 
1.11e-05 -0.00208 3.8e-05 
1.1e-05 -0.00209 3.82e-05 
1.09e-05 -0.00209 3.84e-05 
1.07e-05 -0.0021 3.86e-05 
1.06e-05 -0.00211 3.87e-05 
1.04e-05 -0.00212 3.89e-05 
1.01e-05 -0.00213 3.9e-05 
9.82e-06 -0.00214 3.92e-05 
9.5e-06 -0.00215 3.93e-05 
1.3e-05 -0.00199 3.5e-05 
1.27e-05 -0.002 3.54e-05 
1.24e-05 -0.00201 3.58e-05 
1.22e-05 -0.00201 3.61e-05 
1.2e-05 -0.00202 3.65e-05 
1.18e-05 -0.00203 3.67e-05 
1.17e-05 -0.00204 3.7e-05 
1.16e-05 -0.00204 3.73e-05 
1.14e-05 -0.00205 3.75e-05 
1.13e-05 -0.00206 3.77e-05 
1.12e-05 -0.00207 3.79e-05 
1.11e-05 -0.00208 3.81e-05 
1.09e-05 -0.00209 3.83e-05 
1.08e-05 -0.0021 3.84e-05 
1.06e-05 -0.00211 3.86e-05 
1.04e-05 -0.00212 3.87e-05 
1.02e-05 -0.00213 3.88e-05 
9.87e-06 -0.00214 3.89e-05 
9.54e-06 -0.00215 3.89e-05 
9.28e-06 -0.00215 3.86e-05 
1.33e-05 -0.00199 3.48e-05 
1.28e-05 -0.002 3.51e-05 
1.25e-05 -0.002 3.55e-05 
1.23e-05 -0.00201 3.59e-05 
1.21e-05 -0.00202 3.62e-05 
1.19e-05 -0.00202 3.66e-05 
1.18e-05 -0.00203 3.68e-05 
1.16e-05 -0.00204 3.71e-05 
1.15e-05 -0.00205 3.74e-05 
1.14e-05 -0.00206 3.76e-05 
1.13e-05 -0.00207 3.78e-05 
1.11e-05 -0.00208 3.8e-05 
1.1e-05 -0.00208 3.81e-05 
1.08e-05 -0.00209 3.82e-05 
1.07e-05 -0.0021 3.83e-05 
1.04e-05 -0.00211 3.84e-05 
1.02e-05 -0.00212 3.85e-05 
9.91e-06 -0.00213 3.85e-05 
9.56e-06 -0.00214 3.86e-05 
5.99e-06 -0.00199 2.34e-05 
5.85e-06 -0.002 2.32e-05 
5.51e-06 -0.00201 2.29e-05 
5.18e-06 -0.00202 2.26e-05 
4.81e-06 -0.00202 2.23e-05 
4.42e-06 -0.00203 2.2e-05 
4.02e-06 -0.00204 2.18e-05 
3.6e-06 -0.00205 2.15e-05 
3.18e-06 -0.00206 2.13e-05 
2.75e-06 -0.00207 2.11e-05 
2.32e-06 -0.00208 2.09e-05 
1.89e-06 -0.00209 2.07e-05 
1.47e-06 -0.00209 2.05e-05 
1.07e-06 -0.0021 2.04e-05 
6.85e-07 -0.00211 2.02e-05 
3.2e-07 -0.00212 2.01e-05 
-1.76e-08 -0.00213 2e-05 
-3.27e-07 -0.00214 1.99e-05 
-6.04e-07 -0.00215 1.98e-05 
6e-06 -0.00199 2.33e-05 
5.72e-06 -0.002 2.29e-05 
5.42e-06 -0.00201 2.26e-05 
5.09e-06 -0.00201 2.22e-05 
4.73e-06 -0.00202 2.19e-05 
4.35e-06 -0.00203 2.16e-05 
3.95e-06 -0.00204 2.14e-05 
3.54e-06 -0.00204 2.11e-05 
3.12e-06 -0.00205 2.09e-05 
2.7e-06 -0.00206 2.07e-05 
2.28e-06 -0.00207 2.05e-05 
1.86e-06 -0.00208 2.03e-05 
1.45e-06 -0.00209 2.01e-05 
1.05e-06 -0.0021 2e-05 
6.66e-07 -0.00211 1.99e-05 
3.06e-07 -0.00212 1.98e-05 
-2.86e-08 -0.00213 1.97e-05 
-3.32e-07 -0.00214 1.96e-05 
-6.05e-07 -0.00215 1.95e-05 
-8.81e-07 -0.00215 1.93e-05 
5.97e-06 -0.00199 2.29e-05 
5.6e-06 -0.002 2.26e-05 
5.33e-06 -0.002 2.23e-05 
5e-06 -0.00201 2.19e-05 
4.65e-06 -0.00202 2.16e-05 
4.27e-06 -0.00203 2.13e-05 
3.88e-06 -0.00203 2.1e-05 
3.48e-06 -0.00204 2.08e-05 
3.07e-06 -0.00205 2.05e-05 
2.65e-06 -0.00206 2.03e-05 
2.24e-06 -0.00207 2.01e-05 
1.83e-06 -0.00208 1.99e-05 
1.42e-06 -0.00208 1.98e-05 
1.03e-06 -0.00209 1.96e-05 
6.54e-07 -0.0021 1.95e-05 
2.99e-07 -0.00211 1.94e-05 
-3.04e-08 -0.00212 1.94e-05 
-3.3e-07 -0.00213 1.93e-05 
-5.87e-07 -0.00214 1.93e-05 
6.71e-06 -0.00206 4.18e-05 
4.33e-06 -0.00226 4.4e-05 
6.44e-06 -0.00207 4.22e-05 
6.08e-06 -0.00208 4.26e-05 
5.75e-06 -0.00208 4.29e-05 
5.43e-06 -0.00209 4.32e-05 
5.13e-06 -0.0021 4.35e-05 
4.85e-06 -0.00211 4.38e-05 
4.6e-06 -0.00212 4.4e-05 
4.37e-06 -0.00213 4.42e-05 
4.17e-06 -0.00214 4.43e-05 
4e-06 -0.00215 4.44e-05 
3.86e-06 -0.00216 4.45e-05 
3.76e-06 -0.00217 4.46e-05 
3.7e-06 -0.00218 4.46e-05 
3.67e-06 -0.00219 4.46e-05 
3.69e-06 -0.0022 4.46e-05 
3.75e-06 -0.00221 4.45e-05 
3.85e-06 -0.00222 4.44e-05 
4.01e-06 -0.00224 4.43e-05 
4.24e-06 -0.00225 4.42e-05 
4.44e-06 -0.00225 4.43e-05 
6.93e-06 -0.00206 4.14e-05 
6.56e-06 -0.00207 4.19e-05 
6.19e-06 -0.00207 4.23e-05 
5.85e-06 -0.00208 4.27e-05 
5.52e-06 -0.00209 4.3e-05 
5.21e-06 -0.0021 4.33e-05 
4.92e-06 -0.00211 4.35e-05 
4.66e-06 -0.00212 4.38e-05 